,formula,species_name,mass,charge,ionisation_potential,dipole_moment,N_atoms,block_s,block_p,block_d,block_f,group_IA,group_IB,group_IIA,group_IIB,group_IIIA,group_IIIB,group_IVA,group_IVB,group_VA,group_VB,group_VIA,group_VIB,group_VIIA,group_VIIB,group_VIIIA,group_VIIIB
0,H2,Hydrogen diatomic,2.016,0,15.425927,0,2,2,0,0,0,2,0,0,0,0,0,0,0,0,0,0,0,0,0,0,0
1,D2,Deuterium diatomic,4.028203556,0,,0,2,2,0,0,0,2,0,0,0,0,0,0,0,0,0,0,0,0,0,0,0
2,LiH,Lithium Hydride,7.948,0,,5.88,2,2,0,0,0,1,0,0,0,0,0,0,0,0,0,0,0,0,0,0,0
3,Li2,Lithium diatomic,13.88,0,,0,2,2,0,0,0,0,0,0,0,0,0,0,0,0,0,0,0,0,0,0,0
4,Be2,Beryllium diatomic,18.0243662,0,,0,2,2,0,0,0,0,0,2,0,0,0,0,0,0,0,0,0,0,0,0,0
5,BH,Boron monohydride,11.818,0,,1.27,2,1,1,0,0,1,0,0,0,1,0,0,0,0,0,0,0,0,0,0,0
6,CH,Methylidyne,13.019,0,10.64,1.46,2,1,1,0,0,1,0,0,0,0,0,1,0,0,0,0,0,0,0,0,0
7,C2,Carbon diatomic,24.022,0,11.41,0,2,0,2,0,0,0,0,0,0,0,0,2,0,0,0,0,0,0,0,0,0
8,NH+,imidogen cation,15.015,1,,1.477,2,1,1,0,0,1,0,0,0,0,0,0,0,1,0,0,0,0,0,0,0
9,CN,Cyano radical,26.018,0,14.17,1.45,2,0,2,0,0,0,0,0,0,0,0,1,0,1,0,0,0,0,0,0,0
10,N2,Nitrogen diatomic,28.014,0,15.581,0,2,0,2,0,0,0,0,0,0,0,0,0,0,2,0,0,0,0,0,0,0
11,N2,Nitrogen diatomic,28.014,0,15.581,0,2,0,2,0,0,0,0,0,0,0,0,0,0,2,0,0,0,0,0,0,0
12,OH,Hydroxyl radical,17.007,0,13.017,1.668,2,1,1,0,0,1,0,0,0,0,0,0,0,0,0,1,0,0,0,0,0
13,LiO,lithium oxide,22.939,0,,6.843,2,1,1,0,0,0,0,0,0,0,0,0,0,0,0,1,0,0,0,0,0
14,CO,Carbon monoxide,28.01,0,14.0142,0.112,2,0,2,0,0,0,0,0,0,0,0,1,0,0,0,1,0,0,0,0,0
15,CO,Carbon monoxide,28.01,0,14.0142,1.375,2,0,2,0,0,0,0,0,0,0,0,1,0,0,0,1,0,0,0,0,0
16,NO,Nitric oxide,30.006,0,9.26438,0.159,2,0,2,0,0,0,0,0,0,0,0,0,0,1,0,1,0,0,0,0,0
18,O2,Oxygen diatomic,31.998,0,12.0697,0,2,0,2,0,0,0,0,0,0,0,0,0,0,0,0,2,0,0,0,0,0
19,HF,Hydrogen fluoride,20.00640316,0,,1.827,2,1,1,0,0,1,0,0,0,0,0,0,0,0,0,0,0,1,0,0,0
20,LiF,lithium fluoride,25.93840316,0,,6.284,2,1,1,0,0,0,0,0,0,0,0,0,0,0,0,0,0,1,0,0,0
21,BF,Boron monofluoride,29.80840316,0,,0.5,2,0,2,0,0,0,0,0,0,1,0,0,0,0,0,0,0,1,0,0,0
22,CF,Fluoromethylidyne,31.00940316,0,9.4,0.645,2,0,2,0,0,0,0,0,0,0,0,1,0,0,0,0,0,1,0,0,0
23,NF,nitrogen fluoride,33.00540316,0,12.1,0.37,2,0,2,0,0,0,0,0,0,0,0,0,0,1,0,0,0,1,0,0,0
24,FO,Oxygen monofluoride,34.99740316,0,12.78,0.004,2,0,2,0,0,0,0,0,0,0,0,0,0,0,0,1,0,1,0,0,0
25,F2,Fluorine diatomic,37.99680633,0,15.697,0,2,0,2,0,0,0,0,0,0,0,0,0,0,0,0,0,0,2,0,0,0
26,NaH,sodium hydride,23.99776928,0,,6.4,2,2,0,0,0,2,0,0,0,0,0,0,0,0,0,0,0,0,0,0,0
27,NaLi,lithium sodium,29.92976928,0,,0.46,2,2,0,0,0,1,0,0,0,0,0,0,0,0,0,0,0,0,0,0,0
28,Na2,Sodium diatomic,45.97953856,0,,0,2,2,0,0,0,2,0,0,0,0,0,0,0,0,0,0,0,0,0,0,0
29,NaF,sodium fluoride,41.98817244,0,,8.123,2,1,1,0,0,1,0,0,0,0,0,0,0,0,0,0,0,1,0,0,0
30,Mg2,Magnesium diatomic,48.61,0,,0,2,2,0,0,0,0,0,2,0,0,0,0,0,0,0,0,0,0,0,0,0
31,Al2,Aluminum diatomic,53.9630768,0,,0,2,0,2,0,0,0,0,0,0,2,0,0,0,0,0,0,0,0,0,0,0
32,AlF,Aluminum monofluoride,45.97994156,0,,1.53,2,0,2,0,0,0,0,0,0,1,0,0,0,0,0,0,0,1,0,0,0
33,Si2,Silicon diatomic,56.17,0,,0,2,0,2,0,0,0,0,0,0,0,0,2,0,0,0,0,0,0,0,0,0
34,SiO,Silicon monoxide,44.084,0,11.3,3.088,2,0,2,0,0,0,0,0,0,0,0,1,0,0,0,1,0,0,0,0,0
35,P2,Phosphorus diatomic,61.947524,0,,0,2,0,2,0,0,0,0,0,0,0,0,0,0,2,0,0,0,0,0,0,0
36,PN,Phosphorus mononitride,44.980762,0,11.88,2.751,2,0,2,0,0,0,0,0,0,0,0,0,0,2,0,0,0,0,0,0,0
37,PO,Phosphorus monoxide,46.972762,0,8.39,1.88,2,0,2,0,0,0,0,0,0,0,0,0,0,1,0,1,0,0,0,0,0
38,HS,Mercapto radical,33.068,0,10.4219,0.758,2,1,1,0,0,1,0,0,0,0,0,0,0,0,0,1,0,0,0,0,0
39,DS,Mercapto-d,34.07410178,0,,0.757,2,1,1,0,0,1,0,0,0,0,0,0,0,0,0,1,0,0,0,0,0
40,SiS,silicon monosulfide,60.145,0,10.53,1.73,2,0,2,0,0,0,0,0,0,0,0,1,0,0,0,1,0,0,0,0,0
41,CS,carbon monosulfide,44.071,0,11.335,1.958,2,0,2,0,0,0,0,0,0,0,0,1,0,0,0,1,0,0,0,0,0
42,NS,Mononitrogen monosulfide,46.067,0,9.85,1.81,2,0,2,0,0,0,0,0,0,0,0,0,0,1,0,1,0,0,0,0,0
43,SO,Sulfur monoxide,48.059,0,10.294,1.55,2,0,2,0,0,0,0,0,0,0,0,0,0,0,0,2,0,0,0,0,0
44,SO,Sulfur monoxide,48.059,0,10.294,1.31,2,0,2,0,0,0,0,0,0,0,0,0,0,0,0,2,0,0,0,0,0
45,S2,Sulfur diatomic,64.12,0,9.4,0,2,0,2,0,0,0,0,0,0,0,0,0,0,0,0,2,0,0,0,0,0
46,SF,Monosulfur monofluoride,51.05840316,0,10.16,0.794,2,0,2,0,0,0,0,0,0,0,0,0,0,0,0,1,0,1,0,0,0
47,HCl,Hydrogen chloride,36.458,0,12.79,1.093,2,1,1,0,0,1,0,0,0,0,0,0,0,0,0,0,0,1,0,0,0
48,NaCl,Sodium Chloride,58.43976928,0,,8.971,2,1,1,0,0,1,0,0,0,0,0,0,0,0,0,0,0,1,0,0,0
49,LiCl,lithium chloride,42.39,0,,7.085,2,1,1,0,0,0,0,0,0,0,0,0,0,0,0,0,0,1,0,0,0
50,ClO,Monochlorine monoxide,51.449,0,10.885,1.239,2,0,2,0,0,0,0,0,0,0,0,0,0,0,0,1,0,1,0,0,0
51,ClF,Chlorine monofluoride,54.44840316,0,,0.88,2,0,2,0,0,0,0,0,0,0,0,0,0,0,0,0,0,2,0,0,0
52,Cl2,Chlorine diatomic,70.9,0,11.481,0,2,0,2,0,0,0,0,0,0,0,0,0,0,0,0,0,0,2,0,0,0
53,ArH+,Argon hydride cation,40.958,1,,2.84,2,1,1,0,0,1,0,0,0,0,0,0,0,0,0,0,0,0,0,1,0
54,NaK,Sodium Potassium,62.08806928,0,,2.667,2,2,0,0,0,2,0,0,0,0,0,0,0,0,0,0,0,0,0,0,0
55,LiK,Lithium Potassium,46.0383,0,,3.45,2,2,0,0,0,1,0,0,0,0,0,0,0,0,0,0,0,0,0,0,0
56,KF,Potassium Fluoride,58.09670316,0,,8.558,2,1,1,0,0,1,0,0,0,0,0,0,0,0,0,0,0,1,0,0,0
57,KCl,Potassium Chloride,74.5483,0,,10.239,2,1,1,0,0,1,0,0,0,0,0,0,0,0,0,0,0,1,0,0,0
58,CaCl,calcium monochloride,75.528,0,,4.265,2,1,1,0,0,0,0,1,0,0,0,0,0,0,0,0,0,1,0,0,0
59,ScH,Scandium monohydride,45.963908,0,,1.74,2,1,0,1,0,1,0,0,0,0,1,0,0,0,0,0,0,0,0,0,0
60,CuO,Copper Monoxide,79.545,0,,4.5,2,0,1,1,0,0,1,0,0,0,0,0,0,0,0,1,0,0,0,0,0
61,CuF,Copper monofluoride,82.54440316,0,,5.77,2,0,1,1,0,0,1,0,0,0,0,0,0,0,0,0,0,1,0,0,0
62,GaF,Gallium monofluoride,88.72140316,0,,2.45,2,0,2,0,0,0,0,0,0,1,0,0,0,0,0,0,0,1,0,0,0
63,GeO,Germanium monoxide,88.629,0,,3.272,2,0,2,0,0,0,0,0,0,0,0,1,0,0,0,1,0,0,0,0,0
64,GeS,Germanium monosulfide,104.69,0,,2,2,0,2,0,0,0,0,0,0,0,0,1,0,0,0,1,0,0,0,0,0
65,HSe,Selenium monohydride,79.979,0,,0.49,2,1,1,0,0,1,0,0,0,0,0,0,0,0,0,1,0,0,0,0,0
66,GeSe,Germanium monoselenide,151.601,0,,1.648,2,0,2,0,0,0,0,0,0,0,0,1,0,0,0,1,0,0,0,0,0
67,SeO,Selenium monoxide,94.97,0,,2.01,2,0,2,0,0,0,0,0,0,0,0,0,0,0,0,2,0,0,0,0,0
68,SeF,Selenium monofluoride,97.96940316,0,,1.52,2,0,2,0,0,0,0,0,0,0,0,0,0,0,0,1,0,1,0,0,0
69,HBr,hydrogen bromide,80.912,0,11.71,0.827,2,1,1,0,0,1,0,0,0,0,0,0,0,0,0,0,0,1,0,0,0
70,LiBr,Lithium Bromide,86.844,0,,7.226,2,1,1,0,0,0,0,0,0,0,0,0,0,0,0,0,0,1,0,0,0
71,NaBr,Sodium Bromide,102.8937693,0,,9.092,2,1,1,0,0,1,0,0,0,0,0,0,0,0,0,0,0,1,0,0,0
72,KBr,Potassium Bromide,119.0023,0,,10.603,2,1,1,0,0,1,0,0,0,0,0,0,0,0,0,0,0,1,0,0,0
73,BrO,Bromine monoxide,95.903,0,,1.61,2,0,2,0,0,0,0,0,0,0,0,0,0,0,0,1,0,1,0,0,0
74,BrCl,Bromine monochloride,115.354,0,11.1,0.519,2,0,2,0,0,0,0,0,0,0,0,0,0,0,0,0,0,2,0,0,0
75,BrF,Bromine monofluoride,98.90240316,0,,1.422,2,0,2,0,0,0,0,0,0,0,0,0,0,0,0,0,0,2,0,0,0
76,Br2,Bromine diatomic,159.808,0,10.518,0,2,0,2,0,0,0,0,0,0,0,0,0,0,0,0,0,0,2,0,0,0
77,HI,Hydrogen iodide,127.91247,0,,0.448,2,1,1,0,0,1,0,0,0,0,0,0,0,0,0,0,0,1,0,0,0
78,LiI,Lithium Iodide,133.84447,0,,7.429,2,1,1,0,0,0,0,0,0,0,0,0,0,0,0,0,0,1,0,0,0
79,KI,Potassium Iodide,166.00277,0,,10.82,2,1,1,0,0,1,0,0,0,0,0,0,0,0,0,0,0,1,0,0,0
80,NaI,Sodium Iodide,149.8942393,0,,9.236,2,1,1,0,0,1,0,0,0,0,0,0,0,0,0,0,0,1,0,0,0
81,I2,Iodine diatomic,253.80894,0,,0,2,0,2,0,0,0,0,0,0,0,0,0,0,0,0,0,0,2,0,0,0
82,IBr,Iodine monobromide,206.80847,0,,0.737,2,0,2,0,0,0,0,0,0,0,0,0,0,0,0,0,0,2,0,0,0
83,ICl,Iodine monochloride,162.35447,0,,1.207,2,0,2,0,0,0,0,0,0,0,0,0,0,0,0,0,0,2,0,0,0
84,IF,Iodine monofluoride,145.9028732,0,,1.948,2,0,2,0,0,0,0,0,0,0,0,0,0,0,0,0,0,2,0,0,0
85,BeH2,beryllium dihydride,11.0281831,0,,0,3,3,0,0,0,2,0,1,0,0,0,0,0,0,0,0,0,0,0,0,0
86,C3,carbon trimer,36.033,0,,0,3,0,3,0,0,0,0,0,0,0,0,3,0,0,0,0,0,0,0,0,0
87,HNC,hydrogen isocyanide,27.026,0,13.71,3.05,3,1,2,0,0,1,0,0,0,0,0,1,0,1,0,0,0,0,0,0,0
88,HCN,Hydrogen cyanide,27.026,0,13.71,2.98,3,1,2,0,0,1,0,0,0,0,0,1,0,1,0,0,0,0,0,0,0
89,H2O,Water,18.015,0,12.615,1.857,3,2,1,0,0,2,0,0,0,0,0,0,0,0,0,1,0,0,0,0,0
90,D2O,Deuterium oxide,20.02720356,0,,1.855,3,2,1,0,0,2,0,0,0,0,0,0,0,0,0,1,0,0,0,0,0
91,HDO,Water-d1,19.02110178,0,,1.852,3,2,1,0,0,2,0,0,0,0,0,0,0,0,0,1,0,0,0,0,0
92,LiOH,lithium hydroxide,23.947,0,,4.755,3,2,1,0,0,1,0,0,0,0,0,0,0,0,0,1,0,0,0,0,0
93,HCO+,Formyl cation,29.018,1,,2.916,3,1,2,0,0,1,0,0,0,0,0,1,0,0,0,1,0,0,0,0,0
94,HNO,Nitrosyl hydride,31.014,0,10.1,1.67,3,1,2,0,0,1,0,0,0,0,0,0,0,1,0,1,0,0,0,0,0
95,BO2,Boron dioxide,42.808,0,,0,3,0,3,0,0,0,0,0,0,1,0,0,0,0,0,2,0,0,0,0,0
96,NCO,isocyanato radical,42.017,0,11.759,0.64,3,0,3,0,0,0,0,0,0,0,0,1,0,1,0,1,0,0,0,0,0
97,N2O,Nitrous oxide,44.013,0,12.89,0.161,3,0,3,0,0,0,0,0,0,0,0,0,0,2,0,1,0,0,0,0,0
98,CO2,Carbon dioxide,44.009,0,13.778,0,3,0,3,0,0,0,0,0,0,0,0,1,0,0,0,2,0,0,0,0,0
99,NO2,Nitrogen dioxide,46.005,0,9.6,0.316,3,0,3,0,0,0,0,0,0,0,0,0,0,1,0,2,0,0,0,0,0
100,O3,Ozone,47.997,0,12.43,0.53,3,0,3,0,0,0,0,0,0,0,0,0,0,0,0,3,0,0,0,0,0
101,HOF,Hypofluorous acid,36.00540316,0,,2.23,3,1,2,0,0,1,0,0,0,0,0,0,0,0,0,1,0,1,0,0,0
102,FCN,Cyanogen fluoride,45.01640316,0,,2.17,3,0,3,0,0,0,0,0,0,0,0,1,0,1,0,0,0,1,0,0,0
103,CF2,Difluoromethylene,50.00780633,0,,0.469,3,0,3,0,0,0,0,0,0,0,0,1,0,0,0,0,0,2,0,0,0
104,FNO,Nitrosyl fluoride,49.00440316,0,12.63,1.81,3,0,3,0,0,0,0,0,0,0,0,0,0,1,0,1,0,1,0,0,0
105,NF2,Difluoroamino radical,52.00380633,0,11.8,0.136,3,0,3,0,0,0,0,0,0,0,0,0,0,1,0,0,0,2,0,0,0
106,F2O,Difluorine monoxide,53.99580633,0,13.11,0.297,3,0,3,0,0,0,0,0,0,0,0,0,0,0,0,1,0,2,0,0,0
107,MgH2,magnesium dihydride,26.321,0,,0,3,3,0,0,0,2,0,1,0,0,0,0,0,0,0,0,0,0,0,0,0
108,SiC2,Silicon dicarbide,52.107,0,10.1,2.393,3,0,3,0,0,0,0,0,0,0,0,3,0,0,0,0,0,0,0,0,0
109,SiO2,silicon dioxide,60.083,0,,0,3,0,3,0,0,0,0,0,0,0,0,1,0,0,0,2,0,0,0,0,0
110,SiF2,Silicon difluoride,66.08180633,0,10.78,1.23,3,0,3,0,0,0,0,0,0,0,0,1,0,0,0,0,0,2,0,0,0
111,HCP,Phosphaethyne,43.992762,0,10.79,0.39,3,1,2,0,0,1,0,0,0,0,0,1,0,1,0,0,0,0,0,0,0
112,H2S,Hydrogen sulfide,34.076,0,10.36001,0.977,3,2,1,0,0,2,0,0,0,0,0,0,0,0,0,1,0,0,0,0,0
113,HBS,hydrogen boron sulfide,43.878,0,,1.298,3,1,2,0,0,1,0,0,0,1,0,0,0,0,0,1,0,0,0,0,0
114,OCS,Carbonyl sulfide,60.07,0,11.185,0.715,3,0,3,0,0,0,0,0,0,0,0,1,0,0,0,2,0,0,0,0,0
115,CS2,Carbon disulfide,76.131,0,,0,3,0,3,0,0,0,0,0,0,0,0,1,0,0,0,2,0,0,0,0,0
116,SSO,Disulfur monoxide,80.119,0,,1.47,3,0,3,0,0,0,0,0,0,0,0,0,0,0,0,3,0,0,0,0,0
117,FSN,Thiazyl fluoride,65.06540316,0,,1.902,3,0,3,0,0,0,0,0,0,0,0,0,0,1,0,1,0,1,0,0,0
118,SO2,Sulfur dioxide,64.058,0,12.5,1.633,3,0,3,0,0,0,0,0,0,0,0,0,0,0,0,3,0,0,0,0,0
119,SF2,sulfur difluoride,70.05680633,0,10.08,1.05,3,0,3,0,0,0,0,0,0,0,0,0,0,0,0,1,0,2,0,0,0
121,HOCl,hypochlorous acid,52.457,0,11.12,1.507,3,1,2,0,0,1,0,0,0,0,0,0,0,0,0,1,0,1,0,0,0
122,ClCN,chlorocyanogen,61.468,0,,2.82,3,0,3,0,0,0,0,0,0,0,0,1,0,1,0,0,0,1,0,0,0
123,ClNO,Nitrosyl chloride,65.456,0,,1.866,3,0,3,0,0,0,0,0,0,0,0,0,0,1,0,1,0,1,0,0,0
124,OClO,Chlorine dioxide,67.448,0,10.33,1.792,3,0,3,0,0,0,0,0,0,0,0,0,0,0,0,2,0,1,0,0,0
125,SCl2,Sulfur dichloride,102.96,0,,0.36,3,0,3,0,0,0,0,0,0,0,0,0,0,0,0,1,0,2,0,0,0
126,TiO2,Titanium dioxide,79.865,0,,6.33,3,0,2,1,0,0,0,0,0,0,0,0,1,0,0,2,0,0,0,0,0
127,GeF2,Germanium difluoride,110.6268063,0,,2.61,3,0,3,0,0,0,0,0,0,0,0,1,0,0,0,0,0,2,0,0,0
128,H2Se,Hydrogen selenide,80.987,0,,0.627,3,2,1,0,0,2,0,0,0,0,0,0,0,0,0,1,0,0,0,0,0
129,SCSe,Carbon sulfide selenide,123.042,0,,0.031,3,0,3,0,0,0,0,0,0,0,0,1,0,0,0,2,0,0,0,0,0
130,OCSe,Carbonyl selenide,106.981,0,,0.754,3,0,3,0,0,0,0,0,0,0,0,1,0,0,0,2,0,0,0,0,0
131,SeO2,Selenium dioxide,110.969,0,,2.62,3,0,3,0,0,0,0,0,0,0,0,0,0,0,0,3,0,0,0,0,0
132,HOBr,Hypobromous acid,96.911,0,,1.384,3,1,2,0,0,1,0,0,0,0,0,0,0,0,0,1,0,1,0,0,0
133,SCTe,Carbon sulfide Telluride,171.671,0,,0.172,3,0,3,0,0,0,0,0,0,0,0,1,0,0,0,2,0,0,0,0,0
134,BH3,boron trihydride,13.834,0,,0,4,3,1,0,0,3,0,0,0,1,0,0,0,0,0,0,0,0,0,0,0
135,CH3,Methyl radical,15.035,0,9.843,0,4,3,1,0,0,3,0,0,0,0,0,1,0,0,0,0,0,0,0,0,0
136,C2H2,Acetylene,26.038,0,11.41,0,4,2,2,0,0,2,0,0,0,0,0,2,0,0,0,0,0,0,0,0,0
137,NH3,Ammonia,17.031,0,10.02,1.476,4,3,1,0,0,3,0,0,0,0,0,0,0,1,0,0,0,0,0,0,0
138,N2H2,(E)-diazene,30.03,0,9.65,0,4,2,2,0,0,2,0,0,0,0,0,0,0,2,0,0,0,0,0,0,0
139,HN3,hydrogen azide,43.029,0,,1.7,4,1,3,0,0,1,0,0,0,0,0,0,0,3,0,0,0,0,0,0,0
140,C2N2,Cyanogen,52.036,0,13.5,0,4,0,4,0,0,0,0,0,0,0,0,2,0,2,0,0,0,0,0,0,0
141,H2CO,Formaldehyde,30.026,0,10.88,2.332,4,2,2,0,0,2,0,0,0,0,0,1,0,0,0,1,0,0,0,0,0
142,H2O2,Hydrogen peroxide,34.014,0,10.62,1.77,4,2,2,0,0,2,0,0,0,0,0,0,0,0,0,2,0,0,0,0,0
143,H2O2,Hydrogen peroxide,34.014,0,10.62,0,4,2,2,0,0,2,0,0,0,0,0,0,0,0,0,2,0,0,0,0,0
145,HCNO,fulminic acid,43.025,0,10.83,3.06,4,1,3,0,0,1,0,0,0,0,0,1,0,1,0,1,0,0,0,0,0
146,B2O2,Diboron dioxide,53.618,0,,0,4,0,4,0,0,0,0,0,0,2,0,0,0,0,0,2,0,0,0,0,0
147,NH2F,monofluoroamine,35.02140316,0,,2.27,4,2,2,0,0,2,0,0,0,0,0,0,0,1,0,0,0,1,0,0,0
148,HCCF,Fluoroacetylene,44.02840316,0,,0.73,4,1,3,0,0,1,0,0,0,0,0,2,0,0,0,0,0,1,0,0,0
149,HFCO,formyl fluoride,48.01640316,0,,2.081,4,1,3,0,0,1,0,0,0,0,0,1,0,0,0,1,0,1,0,0,0
150,BHF2,Difluoroborane,49.81480633,0,,0.971,4,1,3,0,0,1,0,0,0,1,0,0,0,0,0,0,0,2,0,0,0
151,NHF2,difluoramine,53.01180633,0,,1.92,4,1,3,0,0,1,0,0,0,0,0,0,0,1,0,0,0,2,0,0,0
152,FNO2,Nitryl fluoride,65.00340316,0,,0.466,4,0,4,0,0,0,0,0,0,0,0,0,0,1,0,2,0,1,0,0,0
153,N2F2,(Z)-Difluorodiazene,66.01080633,0,,0.16,4,0,4,0,0,0,0,0,0,0,0,0,0,2,0,0,0,2,0,0,0
154,BF3,"Borane, trifluoro-",67.80520949,0,16,0,4,0,4,0,0,0,0,0,0,1,0,0,0,0,0,0,0,3,0,0,0
155,CF2O,Carbonic difluoride,66.00680633,0,13.035,0.95,4,0,4,0,0,0,0,0,0,0,0,1,0,0,0,1,0,2,0,0,0
156,CF3,Trifluoromethyl radical,69.00620949,0,8.76,0.43,4,0,4,0,0,0,0,0,0,0,0,1,0,0,0,0,0,3,0,0,0
157,FOOF,Perfluoroperoxide,69.99480633,0,,1.44,4,0,4,0,0,0,0,0,0,0,0,0,0,0,0,2,0,2,0,0,0
158,NF3,Nitrogen trifluoride,71.00220949,0,13.5,0.235,4,0,4,0,0,0,0,0,0,0,0,0,0,1,0,0,0,3,0,0,0
159,AlH3,aluminum trihydride,30.0055384,0,,0,4,3,1,0,0,3,0,0,0,1,0,0,0,0,0,0,0,0,0,0,0
160,AlF3,Aluminum trifluoride,83.97674789,0,,0,4,0,4,0,0,0,0,0,0,1,0,0,0,0,0,0,0,3,0,0,0
161,SiF3,Silicon trifluoride radical,85.08020949,0,9.99,1.2,4,0,4,0,0,0,0,0,0,0,0,1,0,0,0,0,0,3,0,0,0
162,PH3,Phosphine,33.997762,0,9.87,0.58,4,3,1,0,0,3,0,0,0,0,0,0,0,1,0,0,0,0,0,0,0
163,P4,Phosphorus tetramer,123.895048,0,,0,4,0,4,0,0,0,0,0,0,0,0,0,0,4,0,0,0,0,0,0,0
164,PF3,Phosphorus trifluoride,87.96897149,0,,1.03,4,0,4,0,0,0,0,0,0,0,0,0,0,1,0,0,0,3,0,0,0
165,H2CS,Thioformaldehyde,46.087,0,9.376,1.647,4,2,2,0,0,2,0,0,0,0,0,1,0,0,0,1,0,0,0,0,0
166,H2S2,Disulfane,66.136,0,9.3,1.17,4,2,2,0,0,2,0,0,0,0,0,0,0,0,0,2,0,0,0,0,0
167,SO3,Sulfur trioxide,80.057,0,13.15,0,4,0,4,0,0,0,0,0,0,0,0,0,0,0,0,4,0,0,0,0,0
168,FSSF,Difluorodisulfane,102.1168063,0,,1.45,4,0,4,0,0,0,0,0,0,0,0,0,0,0,0,2,0,2,0,0,0
169,S2F2,Thio-thionyl fluoride,102.1168063,0,,1.03,4,0,4,0,0,0,0,0,0,0,0,0,0,0,0,2,0,2,0,0,0
170,HCCCl,Chloroacetylene,60.48,0,,0.44,4,1,3,0,0,1,0,0,0,0,0,2,0,0,0,0,0,1,0,0,0
171,Cl2CS,Thiophosgene,114.971,0,,0.29,4,0,4,0,0,0,0,0,0,0,0,1,0,0,0,1,0,2,0,0,0
172,CCl2O,Phosgene,98.91,0,,1.17,4,0,4,0,0,0,0,0,0,0,0,1,0,0,0,1,0,2,0,0,0
173,ClNO2,Nitryl chloride,81.455,0,,0.53,4,0,4,0,0,0,0,0,0,0,0,0,0,1,0,2,0,1,0,0,0
174,BCl3,"Borane, trichloro-",117.16,0,11.64,0,4,0,4,0,0,0,0,0,0,1,0,0,0,0,0,0,0,3,0,0,0
175,AlCl3,Aluminum trichloride,133.3315384,0,,0,4,0,4,0,0,0,0,0,0,1,0,0,0,0,0,0,0,3,0,0,0
176,SOCl2,thionyl chloride,118.959,0,,1.45,4,0,4,0,0,0,0,0,0,0,0,0,0,0,0,2,0,2,0,0,0
177,PCl3,Phosphorus trichloride,137.323762,0,,0.56,4,0,4,0,0,0,0,0,0,0,0,0,0,1,0,0,0,3,0,0,0
178,NCl3,nitrogen trichloride,120.357,0,,0.39,4,0,4,0,0,0,0,0,0,0,0,0,0,1,0,0,0,3,0,0,0
179,ClSSCl,Disulfur dichloride,135.02,0,,1.6,4,0,4,0,0,0,0,0,0,0,0,0,0,0,0,2,0,2,0,0,0
180,ClF3,Chlorine trifluoride,92.44520949,0,,0.6,4,0,4,0,0,0,0,0,0,0,0,0,0,0,0,0,0,4,0,0,0
181,AsH3,Arsine,77.945595,0,,0.2,4,3,1,0,0,3,0,0,0,0,0,0,0,1,0,0,0,0,0,0,0
182,AsCl3,Arsenous trichloride,181.271595,0,,1.59,4,0,4,0,0,0,0,0,0,0,0,0,0,1,0,0,0,3,0,0,0
183,AsF3,Arsenic trifluoride,131.9168045,0,,2.59,4,0,4,0,0,0,0,0,0,0,0,0,0,1,0,0,0,3,0,0,0
184,H2CSe,Selenoformaldehyde,92.998,0,,1.41,4,2,2,0,0,2,0,0,0,0,0,1,0,0,0,1,0,0,0,0,0
185,HCCBr,bromoacetylene,104.934,0,,0.23,4,1,3,0,0,1,0,0,0,0,0,2,0,0,0,0,0,1,0,0,0
186,PBr3,Phosphorus tribromide,270.685762,0,,0.61,4,0,4,0,0,0,0,0,0,0,0,0,0,1,0,0,0,3,0,0,0
187,BrF3,Bromine trifluoride,136.8992095,0,,1,4,0,4,0,0,0,0,0,0,0,0,0,0,0,0,0,0,4,0,0,0
188,CH4,Methane,16.043,0,12.61,0,5,4,1,0,0,4,0,0,0,0,0,1,0,0,0,0,0,0,0,0,0
189,CH2NH,Methanimine,29.042,0,9.97,2,5,3,2,0,0,3,0,0,0,0,0,1,0,1,0,0,0,0,0,0,0
190,CH2NN,diazomethane,42.041,0,10.3,1.5,5,2,3,0,0,2,0,0,0,0,0,1,0,2,0,0,0,0,0,0,0
191,NH2CN,cyanamide,42.041,0,10.3,4.32,5,2,3,0,0,2,0,0,0,0,0,1,0,2,0,0,0,0,0,0,0
192,HNCNH,diiminomethane,42.041,0,10.3,1.9,5,2,3,0,0,2,0,0,0,0,0,1,0,2,0,0,0,0,0,0,0
193,CH2N2,diazirine,42.041,0,10.3,1.59,5,2,3,0,0,2,0,0,0,0,0,1,0,2,0,0,0,0,0,0,0
194,HCCCN,Cyanoacetylene,51.048,0,11.23,3.72,5,1,4,0,0,1,0,0,0,0,0,3,0,1,0,0,0,0,0,0,0
195,NH2OH,hydroxylamine,33.03,0,,0.59,5,3,2,0,0,3,0,0,0,0,0,0,0,1,0,1,0,0,0,0,0
196,CH2CO,Ketene,42.037,0,9.6191,1.42,5,2,3,0,0,2,0,0,0,0,0,2,0,0,0,1,0,0,0,0,0
197,CH2O2,Dioxirane,46.025,0,11.31,2.479,5,2,3,0,0,2,0,0,0,0,0,1,0,0,0,2,0,0,0,0,0
198,HCOOH,Formic acid,46.025,0,11.31,1.41,5,2,3,0,0,2,0,0,0,0,0,1,0,0,0,2,0,0,0,0,0
199,HCOOH,Formic acid,46.025,0,11.31,3.79,5,2,3,0,0,2,0,0,0,0,0,1,0,0,0,2,0,0,0,0,0
200,HNO3,Nitric acid,63.012,0,,2.17,5,1,4,0,0,1,0,0,0,0,0,0,0,1,0,3,0,0,0,0,0
201,C3O2,Carbon suboxide,68.031,0,,0,5,0,5,0,0,0,0,0,0,0,0,3,0,0,0,2,0,0,0,0,0
202,N2O3,Dinitrogen trioxide,76.011,0,,2.122,5,0,5,0,0,0,0,0,0,0,0,0,0,2,0,3,0,0,0,0,0
203,CH3F,Methyl fluoride,34.03340316,0,12.45,1.847,5,3,2,0,0,3,0,0,0,0,0,1,0,0,0,0,0,1,0,0,0
204,CH2F2,"Methane, difluoro-",52.02380633,0,12.7,1.97,5,2,3,0,0,2,0,0,0,0,0,1,0,0,0,0,0,2,0,0,0
205,CHF3,"Methane, trifluoro-",70.01420949,0,13.9,1.645,5,1,4,0,0,1,0,0,0,0,0,1,0,0,0,0,0,3,0,0,0
206,CF4,Carbon tetrafluoride,88.00461265,0,16.2,0,5,0,5,0,0,0,0,0,0,0,0,1,0,0,0,0,0,4,0,0,0
207,SiH4,Silane,32.117,0,11.2,0,5,4,1,0,0,4,0,0,0,0,0,1,0,0,0,0,0,0,0,0,0
208,SiH3F,monofluorosilane,50.10740316,0,,1.297,5,3,2,0,0,3,0,0,0,0,0,1,0,0,0,0,0,1,0,0,0
209,SiH2F2,difluorosilane,68.09780633,0,,1.54,5,2,3,0,0,2,0,0,0,0,0,1,0,0,0,0,0,2,0,0,0
210,SiHF3,trifluorosilane,86.08820949,0,,1.359,5,1,4,0,0,1,0,0,0,0,0,1,0,0,0,0,0,3,0,0,0
211,SiF4,Silicon tetrafluoride,104.0786127,0,15.29,0,5,0,5,0,0,0,0,0,0,0,0,1,0,0,0,0,0,4,0,0,0
212,CH2PH,Phosphaethene,46.008762,0,10.3,0.869,5,3,2,0,0,3,0,0,0,0,0,1,0,1,0,0,0,0,0,0,0
213,F3PO,Phosphoryl fluoride,103.9679715,0,,1.76,5,0,5,0,0,0,0,0,0,0,0,0,0,1,0,1,0,3,0,0,0
214,NH2SH,Thiohydroxylamine,49.091,0,,0.961,5,3,2,0,0,3,0,0,0,0,0,0,0,1,0,1,0,0,0,0,0
215,NH2SH,Thiohydroxylamine,49.091,0,,2.005,5,3,2,0,0,3,0,0,0,0,0,0,0,1,0,1,0,0,0,0,0
216,CH2CS,Thioketene,58.098,0,8.77,1.02,5,2,3,0,0,2,0,0,0,0,0,2,0,0,0,1,0,0,0,0,0
217,SO2F2,Sulfuryl fluoride,102.0548063,0,13,1.12,5,0,5,0,0,0,0,0,0,0,0,0,0,0,0,3,0,2,0,0,0
218,SF4,Sulfur tetrafluoride,108.0536127,0,11.69,0.632,5,0,5,0,0,0,0,0,0,0,0,0,0,0,0,1,0,4,0,0,0
219,SiH3Cl,chlorosilane,66.559,0,,1.31,5,3,2,0,0,3,0,0,0,0,0,1,0,0,0,0,0,1,0,0,0
220,CH3Cl,Methyl chloride,50.485,0,,1.87,5,3,2,0,0,3,0,0,0,0,0,1,0,0,0,0,0,1,0,0,0
221,CH2Cl2,Methylene chloride,84.927,0,,1.62,5,2,3,0,0,2,0,0,0,0,0,1,0,0,0,0,0,2,0,0,0
222,CH2FCl,fluorochloromethane,68.47540316,0,,1.82,5,2,3,0,0,2,0,0,0,0,0,1,0,0,0,0,0,2,0,0,0
223,SiH2Cl2,dichlorosilane,101.001,0,,1.13,5,2,3,0,0,2,0,0,0,0,0,1,0,0,0,0,0,2,0,0,0
224,SiHCl3,Trichlorosilane,135.443,0,,0.86,5,1,4,0,0,1,0,0,0,0,0,1,0,0,0,0,0,3,0,0,0
225,CHF2Cl,difluorochloromethane,86.46580633,0,,1.42,5,1,4,0,0,1,0,0,0,0,0,1,0,0,0,0,0,3,0,0,0
226,CHFCl2,fluorodichloromethane,102.9174032,0,,1.29,5,1,4,0,0,1,0,0,0,0,0,1,0,0,0,0,0,3,0,0,0
227,CHCl3,Chloroform,119.369,0,,1.04,5,1,4,0,0,1,0,0,0,0,0,1,0,0,0,0,0,3,0,0,0
228,ClONO2,Chlorine nitrate,97.454,0,,0.772,5,0,5,0,0,0,0,0,0,0,0,0,0,1,0,3,0,1,0,0,0
229,SO2Cl2,Sulfuryl chloride,134.958,0,,1.81,5,0,5,0,0,0,0,0,0,0,0,0,0,0,0,3,0,2,0,0,0
230,Cl3PO,Phosphoryl chloride,153.322762,0,,2.54,5,0,5,0,0,0,0,0,0,0,0,0,0,1,0,1,0,3,0,0,0
231,SiCl4,"Silane, tetrachloro-",169.885,0,11.8,0,5,0,5,0,0,0,0,0,0,0,0,1,0,0,0,0,0,4,0,0,0